#+++++++++++++++++++++++++++++++++++++++++++++++++++++++++++++++++++++++++++++++++++++++++++++++++++++++++++++++++++++++
#
# DPW-8/AePW-4 UNSTEADY SECTIONAL CUT SUBMITTAL FORM (Version 5 - October 16, 2024)
#
# Provide this file for steady-state or time-averaged sectional cuts
#
#+++++++++++++++++++++++++++++++++++++++++++++++++++++++++++++++++++++++++++++++++++++++++++++++++++++++++++++++++++++++

TITLE = "005.12"

# Column       1     2     3     4       5          6          7          8
VARIABLES =   "X"   "Y"   "Z"   "X/C"   "CP_AVG"   "CP_RMS"   "CF_AVG"   "CF_RMS"

#---------------------------------------------------
#   PARTICIPANT, GRID, AND SOLVER INFORMATION
#---------------------------------------------------
DATASETAUXDATA ParticipantID   = "005"
DATASETAUXDATA SubmissionDate  = "2025-07-11"
DATASETAUXDATA Name            = "Kiran Ravikumar"
DATASETAUXDATA Email           = "kiran.ravikumar@nasa.gov"
DATASETAUXDATA Institution     = "NASA Ames Research Center"
DATASETAUXDATA SolverName      = "LAVA Unstructured"
DATASETAUXDATA BasicAlgorithm  = "WMLES"
DATASETAUXDATA TurbulenceModel = "Vreman SGS Model with constant 0.08"
DATASETAUXDATA GridId          = "Voronoi"
DATASETAUXDATA Notes           = "N/A"

ZONE T="005.12 - ALPHA 3.50 - Type C grid, Level 3, span=0.05c - Span Averaged"
AUXDATA GridLevel       = "3"
AUXDATA Mach            = "0.73"
AUXDATA Re              = "3.00e+06"
AUXDATA Alpha           = "3.50"
AUXDATA Tstatic         = "271"
AUXDATA CLtotal         = "0.89330"
AUXDATA Eta             = "Span Averaged"
AUXDATA Dt              = "2.18163e-08"
AUXDATA CtuStart        = "100"
AUXDATA CtuAvg          = "50"
AUXDATA GridFileName    = "dpw-oat15a-L3C-5pc-gr1p075.cgns"
   0.22937092   -0.00000027   -0.00050231    0.99726486   -0.00474380    0.11889010    0.00383736 -999.00000000
   0.22883133   -0.00000001   -0.00044176    0.99491881    0.02306279    0.11019035    0.00348332 -999.00000000
   0.22818751    0.00000000   -0.00037125    0.99211962    0.04961055    0.10254462    0.00331458 -999.00000000
   0.22731997    0.00000086   -0.00027905    0.98834769    0.07757560    0.09482587    0.00317083 -999.00000000
   0.22634440   -0.00000042   -0.00017884    0.98410610    0.10353571    0.08809288    0.00300395 -999.00000000
   0.22516360    0.00000086   -0.00006232    0.97897216    0.13038116    0.08165962    0.00290780 -999.00000000
   0.22385882    0.00000006    0.00006069    0.97329921    0.15564552    0.07591630    0.00280728 -999.00000000
   0.22241101   -0.00000003    0.00019023    0.96700439    0.17926517    0.07086538    0.00263845 -999.00000000
   0.22081643    0.00000020    0.00032450    0.96007143    0.20071149    0.06636326    0.00251961 -999.00000000
   0.21910334   -0.00000006    0.00045902    0.95262320    0.22207193    0.06224533    0.00245536 -999.00000000
   0.21724441    0.00000020    0.00059343    0.94454089    0.24111582    0.05883154    0.00234651 -999.00000000
   0.21527356   -0.00000049    0.00072255    0.93597202    0.25895875    0.05541788    0.00224539 -999.00000000
   0.21321049    0.00000006    0.00084239    0.92700214    0.27648805    0.05248796    0.00217960 -999.00000000
   0.21105093    0.00000003    0.00095037    0.91761276    0.29199130    0.04988639    0.00210894 -999.00000000
   0.20876608   -0.00000000    0.00104411    0.90767859    0.30543976    0.04774489    0.00198981 -999.00000000
   0.20639705    0.00000005    0.00111763    0.89737846    0.31857409    0.04562906    0.00195099 -999.00000000
   0.20395559    0.00000007    0.00116667    0.88676345    0.32910064    0.04399481    0.00186985 -999.00000000
   0.20143935    0.00000002    0.00118709    0.87582325    0.33774361    0.04235101    0.00181158 -999.00000000
   0.19886930   -0.00000005    0.00117491    0.86464913    0.34413882    0.04094023    0.00173934 -999.00000000
   0.19618712   -0.00000001    0.00112525    0.85298749    0.34836152    0.04000256    0.00168107 -999.00000000
   0.19349839   -0.00000023    0.00103689    0.84129733    0.34957838    0.03914000    0.00160295 -999.00000000
   0.19075708   -0.00000052    0.00090692    0.82937859    0.34850656    0.03859443    0.00156144 -999.00000000
   0.18792693   -0.00000002    0.00073112    0.81707359    0.34563481    0.03773862    0.00153118 -999.00000000
   0.18507706    0.00000011    0.00051309    0.80468285    0.33959345    0.03757766    0.00149245 -999.00000000
   0.18217085   -0.00000016    0.00025071    0.79204719    0.33153749    0.03714987    0.00148446 -999.00000000
   0.17927134    0.00000004   -0.00004805    0.77944062    0.32125625    0.03697636    0.00147201 -999.00000000
   0.17633036   -0.00000048   -0.00038512    0.76665375    0.30921816    0.03723225    0.00148566 -999.00000000
   0.17337254   -0.00000016   -0.00075457    0.75379365    0.29507974    0.03681378    0.00148454 -999.00000000
   0.17040390    0.00000013   -0.00115170    0.74088654    0.27999862    0.03698378    0.00150073 -999.00000000
   0.16741252   -0.00000028   -0.00157418    0.72788050    0.26281790    0.03702963    0.00151787 -999.00000000
   0.16441445    0.00000037   -0.00201593    0.71484544    0.24550531    0.03739368    0.00157141 -999.00000000
   0.16138791    0.00000086   -0.00247652    0.70168658    0.22656757    0.03739780    0.00163357 -999.00000000
   0.15836313    0.00000008   -0.00294797    0.68853535    0.20735783    0.03710305    0.00166879 -999.00000000
   0.15534727    0.00000088   -0.00342597    0.67542293    0.18817956    0.03726997    0.00174677 -999.00000000
   0.15232515   -0.00000001   -0.00391013    0.66228327    0.16792893    0.03738131    0.00178191 -999.00000000
   0.14933854   -0.00000068   -0.00439131    0.64929799    0.14827007    0.03801943    0.00183159 -999.00000000
   0.14632019   -0.00000015   -0.00487825    0.63617475    0.12760992    0.03759238    0.00189014 -999.00000000
   0.14335519    0.00000003   -0.00535537    0.62328343    0.10920178    0.03894552    0.00196025 -999.00000000
   0.14031265    0.00000001   -0.00584195    0.61005499    0.08691840    0.03791060    0.00200048 -999.00000000
   0.13735193   -0.00000020   -0.00631099    0.59718232    0.06662899    0.03802726    0.00205984 -999.00000000
   0.13445775    0.00000037   -0.00676383    0.58459893    0.04740731    0.03881094    0.00212056 -999.00000000
   0.13151384    0.00000006   -0.00721738    0.57179928    0.02730989    0.03867730    0.00216935 -999.00000000
   0.12857025   -0.00000022   -0.00766253    0.55900107    0.00736493    0.03900695    0.00221083 -999.00000000
   0.12569269   -0.00000015   -0.00808846    0.54648996   -0.01246055    0.03994745    0.00225142 -999.00000000
   0.12276176   -0.00000034   -0.00851175    0.53374680   -0.03211091    0.03939205    0.00228705 -999.00000000
   0.11990160   -0.00000039   -0.00891357    0.52131132   -0.05131354    0.04015488    0.00230808 -999.00000000
   0.11706965   -0.00000021   -0.00929947    0.50899846   -0.06936605    0.04030984    0.00235515 -999.00000000
   0.11431269    0.00000245   -0.00966291    0.49701169   -0.08759415    0.04150411    0.00233070 -999.00000000
   0.11155717   -0.00000029   -0.01001324    0.48503119   -0.10557530    0.04037772    0.00243588 -999.00000000
   0.10872966   -0.00000017   -0.01035849    0.47273765   -0.12385406    0.04150829    0.00246200 -999.00000000
   0.10608504   -0.00000008   -0.01066758    0.46123930   -0.13945778    0.04044669    0.00252375 -999.00000000
   0.10339153   -0.00000030   -0.01096786    0.44952841   -0.15504291    0.04063773    0.00258943 -999.00000000
   0.10070890    0.00000036   -0.01125159    0.43786477   -0.16826443    0.04102744    0.00268624 -999.00000000
   0.09806420   -0.00000167   -0.01151540    0.42636611   -0.18448650    0.04057213    0.00276262 -999.00000000
   0.09558685    0.00000065   -0.01174746    0.41559500   -0.19926614    0.04112990    0.00274912 -999.00000000
   0.09294041   -0.00000010   -0.01197841    0.40408872   -0.21230502    0.04142356    0.00288132 -999.00000000
   0.09049115   -0.00000024   -0.01217576    0.39343977   -0.22295928    0.04073995    0.00295566 -999.00000000
   0.08789996   -0.00000021   -0.01236670    0.38217372   -0.23349595    0.04045872    0.00304008 -999.00000000
   0.08545975   -0.00000009   -0.01252893    0.37156412   -0.24195642    0.04018717    0.00312615 -999.00000000
   0.08316045   -0.00000017   -0.01266575    0.36156718   -0.24854369    0.03983191    0.00321534 -999.00000000
   0.08071473   -0.00000023   -0.01279367    0.35093359   -0.25393889    0.03941750    0.00331732 -999.00000000
   0.07841456    0.00000022   -0.01289700    0.34093288   -0.25689711    0.03890416    0.00341764 -999.00000000
   0.07611459   -0.00000022   -0.01298355    0.33093301   -0.25960234    0.03872619    0.00351535 -999.00000000
   0.07381475    0.00000015   -0.01305309    0.32093371   -0.25956220    0.03807246    0.00362098 -999.00000000
   0.07166167   -0.00000026   -0.01310246    0.31157248   -0.25936551    0.03787655    0.00371178 -999.00000000
   0.06950195   -0.00000020   -0.01313660    0.30218238   -0.25708102    0.03717999    0.00381331 -999.00000000
   0.06734913   -0.00000019   -0.01315507    0.29282230   -0.25334286    0.03660279    0.00391552 -999.00000000
   0.06533602    0.00000003   -0.01315813    0.28406964   -0.24848576    0.03607697    0.00400735 -999.00000000
   0.06332316    0.00000022   -0.01314737    0.27531808   -0.24264836    0.03561008    0.00408967 -999.00000000
   0.06131069    0.00000015   -0.01312268    0.26656823   -0.23561055    0.03514915    0.00416658 -999.00000000
   0.05928439   -0.00000012   -0.01308361    0.25775822   -0.22768938    0.03462015    0.00421643 -999.00000000
   0.05742417    0.00000017   -0.01303510    0.24967032   -0.21908301    0.03460058    0.00429214 -999.00000000
   0.05551388   -0.00000001   -0.01297257    0.24136468   -0.21012486    0.03753181    0.00430518 -999.00000000
   0.05371149    0.00000022   -0.01290163    0.23352821   -0.20093928    0.03637263    0.00434884 -999.00000000
   0.05179672   -0.00000016   -0.01281338    0.22520313   -0.18977779    0.03442707    0.00439246 -999.00000000
   0.05016104    0.00000018   -0.01272728    0.21809146   -0.17951218    0.03361334    0.00442798 -999.00000000
   0.04840564   -0.00000017   -0.01262377    0.21045930   -0.16776192    0.03399743    0.00445957 -999.00000000
   0.04676297    0.00000009   -0.01251619    0.20331727   -0.15640374    0.03286901    0.00447102 -999.00000000
   0.04512993    0.00000027   -0.01239874    0.19621707   -0.14406655    0.03247555    0.00448033 -999.00000000
   0.04349764    0.00000012   -0.01227061    0.18912016   -0.13086898    0.03225387    0.00447834 -999.00000000
   0.04186319    0.00000023   -0.01213123    0.18201386   -0.11664424    0.03227061    0.00446062 -999.00000000
   0.04035288   -0.00000057   -0.01199230    0.17544730   -0.10299110    0.03301119    0.00441208 -999.00000000
   0.03893755    0.00000026   -0.01185302    0.16929368   -0.08892245    0.03302047    0.00439690 -999.00000000
   0.03741558    0.00000019   -0.01169315    0.16267642   -0.07280870    0.03362866    0.00433637 -999.00000000
   0.03606173   -0.00000085   -0.01154192    0.15679015   -0.05822176    0.03477136    0.00422738 -999.00000000
   0.03465814    0.00000079   -0.01137594    0.15068757   -0.04078771    0.03257912    0.00415040 -999.00000000
   0.03336930    0.00000038   -0.01121513    0.14508390   -0.02399936    0.03253423    0.00403360 -999.00000000
   0.03206323    0.00000078   -0.01104371    0.13940535   -0.00625735    0.03587481    0.00385061 -999.00000000
   0.03081486    0.00000005   -0.01087179    0.13397764    0.01234951    0.03658705    0.00365734 -999.00000000
   0.02963005    0.00000031   -0.01070116    0.12882632    0.02955716    0.03639885    0.00344318 -999.00000000
   0.02843315   -0.00000033   -0.01052122    0.12362240    0.04687682    0.03867592    0.00314130 -999.00000000
   0.02727408    0.00000028   -0.01033952    0.11858294    0.06397006    0.03867057    0.00279463 -999.00000000
   0.02612378   -0.00000062   -0.01015178    0.11358164    0.07827668    0.04294486    0.00235816 -999.00000000
   0.02505938    0.00000007   -0.00997124    0.10895383    0.08628644    0.04399127    0.00191417 -999.00000000
   0.02398871    0.00000026   -0.00978275    0.10429876    0.07806556    0.04773950    0.00141338 -999.00000000
   0.02296610    0.00000018   -0.00959594    0.09985263    0.05827579    0.04819926    0.00102159 -999.00000000
   0.02198071    0.00000027   -0.00940941    0.09556832    0.02264332    0.05212453    0.00065885 -999.00000000
   0.02101331    0.00000036   -0.00921964    0.09136222   -0.02144853    0.05771406    0.00035276 -999.00000000
   0.02014713    0.00000019   -0.00904389    0.08759622   -0.07000613    0.05945652    0.00010184 -999.00000000
   0.01920444    0.00000119   -0.00884584    0.08349755   -0.11885778    0.05562313    0.00007621 -999.00000000
   0.01830766    0.00000020   -0.00865048    0.07959853   -0.16125726    0.05011745    0.00035867 -999.00000000
   0.01751917   -0.00000136   -0.00847272    0.07617030   -0.16441199    0.05651757    0.00068785 -999.00000000
   0.01670049   -0.00000042   -0.00828190    0.07261084   -0.14002456    0.05092971    0.00113449 -999.00000000
   0.01597602    0.00000057   -0.00810723    0.06946094    0.61582530    0.16862066    0.00809438 -999.00000000
   0.01515541   -0.00000008   -0.00790249    0.06589307    0.60359442    0.06070430    0.00099268 -999.00000000
   0.01447617   -0.00000001   -0.00772706    0.06293989    0.49392394    0.02347328    0.00111230 -999.00000000
   0.01374939   -0.00000028   -0.00753305    0.05977995    0.43450295    0.01814006    0.00117794 -999.00000000
   0.01305664   -0.00000007   -0.00734171    0.05676799    0.41929188    0.01710285    0.00120000 -999.00000000
   0.01239474    0.00000015   -0.00715265    0.05389016    0.41523767    0.01712477    0.00120853 -999.00000000
   0.01179036    0.00000026   -0.00697452    0.05126241    0.41921782    0.01720631    0.00124610 -999.00000000
   0.01120529    0.00000006   -0.00679676    0.04871864    0.42718675    0.01730411    0.00123924 -999.00000000
   0.01060587    0.00000094   -0.00660899    0.04611247    0.43970766    0.01737467    0.00122772 -999.00000000
   0.01008433   -0.00000004   -0.00644084    0.04384493    0.45194175    0.01730792    0.00130824 -999.00000000
   0.00957184    0.00000018   -0.00627098    0.04161670    0.46695792    0.01720379    0.00129707 -999.00000000
   0.00901220   -0.00000011   -0.00608014    0.03918349    0.48510275    0.01712227    0.00137514 -999.00000000
   0.00856125   -0.00000052   -0.00592214    0.03722282    0.50048522    0.01723247    0.00137108 -999.00000000
   0.00803792    0.00000030   -0.00573377    0.03494747    0.51945842    0.01698604    0.00133598 -999.00000000
   0.00761052    0.00000016   -0.00557571    0.03308921    0.53721556    0.01685097    0.00141796 -999.00000000
   0.00717278    0.00000005   -0.00540987    0.03118600    0.55430624    0.01676627    0.00140106 -999.00000000
   0.00678197    0.00000023   -0.00525791    0.02948681    0.57203371    0.01675190    0.00145640 -999.00000000
   0.00639453    0.00000008   -0.00510362    0.02780232    0.59001540    0.01651754    0.00146302 -999.00000000
   0.00598174    0.00000000   -0.00493500    0.02600758    0.60843602    0.01650285    0.00144189 -999.00000000
   0.00563035    0.00000016   -0.00478743    0.02447980    0.62712138    0.01626197    0.00153514 -999.00000000
   0.00528858    0.00000014   -0.00464022    0.02299380    0.64521177    0.01619045    0.00149210 -999.00000000
   0.00495495   -0.00000031   -0.00449273    0.02154325    0.66363841    0.01600461    0.00147133 -999.00000000
   0.00465273    0.00000007   -0.00435547    0.02022928    0.68063417    0.01596850    0.00154797 -999.00000000
   0.00434626   -0.00000001   -0.00421235    0.01889679    0.69874855    0.01587029    0.00152196 -999.00000000
   0.00405633   -0.00000003   -0.00407289    0.01763622    0.71706593    0.01573437    0.00149202 -999.00000000
   0.00377371    0.00000009   -0.00393267    0.01640744    0.73633723    0.01563731    0.00156553 -999.00000000
   0.00349517    0.00000003   -0.00378983    0.01519638    0.75657704    0.01547511    0.00152834 -999.00000000
   0.00326564   -0.00000009   -0.00366802    0.01419844    0.77553404    0.01535490    0.00149711 -999.00000000
   0.00301929    0.00000018   -0.00353295    0.01312733    0.79632625    0.01531827    0.00156159 -999.00000000
   0.00278889    0.00000002   -0.00340198    0.01212560    0.81654047    0.01502501    0.00151814 -999.00000000
   0.00255873    0.00000002   -0.00326608    0.01112493    0.83807669    0.01476446    0.00146739 -999.00000000
   0.00234245    0.00000032   -0.00313326    0.01018458    0.85713740    0.01451956    0.00153657 -999.00000000
   0.00214398    0.00000003   -0.00300558    0.00932164    0.87892660    0.01422457    0.00146865 -999.00000000
   0.00197253    0.00000006   -0.00288990    0.00857621    0.90132965    0.01407372    0.00141315 -999.00000000
   0.00178807   -0.00000009   -0.00276079    0.00777423    0.92272678    0.01434021    0.00134148 -999.00000000
   0.00161158   -0.00000001   -0.00263116    0.00700686    0.94306266    0.01350086    0.00136868 -999.00000000
   0.00144589   -0.00000005   -0.00250100    0.00628649    0.96983898    0.01307014    0.00128520 -999.00000000
   0.00128370   -0.00000012   -0.00236713    0.00558129    0.99405750    0.01214954    0.00119361 -999.00000000
   0.00112831    0.00000011   -0.00223143    0.00490571    1.01507364    0.01207710    0.00114804 -999.00000000
   0.00098224    0.00000000   -0.00209176    0.00427059    1.04244240    0.01075426    0.00105768 -999.00000000
   0.00083955   -0.00000003   -0.00194630    0.00365023    1.06552664    0.01089684    0.00092521 -999.00000000
   0.00072258    0.00000005   -0.00181720    0.00314167    1.08494841    0.00941309    0.00079539 -999.00000000
   0.00060303    0.00000010   -0.00166996    0.00262187    1.10647713    0.00805052    0.00067569 -999.00000000
   0.00048943    0.00000007   -0.00152108    0.00212798    1.12165076    0.00720255    0.00049725 -999.00000000
   0.00039176   -0.00000001   -0.00136746    0.00170330    1.13414178    0.00593792    0.00029711 -999.00000000
   0.00029571    0.00000035   -0.00120096    0.00128569    1.14028663    0.00496674    0.00007089 -999.00000000
   0.00021709    0.00000005   -0.00103985    0.00094388    1.13907735    0.00437815    0.00016869 -999.00000000
   0.00014526    0.00000003   -0.00085379    0.00063158    1.12794323    0.00441095    0.00046791 -999.00000000
   0.00008558   -0.00000029   -0.00067221    0.00037209    1.10382730    0.00735350    0.00076797 -999.00000000
   0.00004941   -0.00000052   -0.00048502    0.00021482    1.07302788    0.00652164    0.00101510 -999.00000000
   0.00001802    0.00000001   -0.00030522    0.00007837    1.02861296    0.00834781    0.00129256 -999.00000000
   0.00001439   -0.00000003    0.00024376    0.00006257    0.89600415    0.01066135    0.00195213 -999.00000000
   0.00003809    0.00000001    0.00048194    0.00016562    0.81295673    0.01264428    0.00223500 -999.00000000
   0.00007363   -0.00000088    0.00069068    0.00032015    0.75158522    0.01276471    0.00246074 -999.00000000
   0.00011893    0.00000003    0.00089662    0.00051709    0.68749215    0.01326700    0.00261506 -999.00000000
   0.00017693   -0.00000003    0.00112200    0.00076928    0.58913334    0.01873548    0.00285436 -999.00000000
   0.00024761    0.00000001    0.00133838    0.00107656    0.54314002    0.01576970    0.00298022 -999.00000000
   0.00033710    0.00000002    0.00158510    0.00146564    0.45154058    0.01536500    0.00318936 -999.00000000
   0.00042553    0.00000000    0.00180215    0.00185013    0.34483406    0.02222257    0.00340041 -999.00000000
   0.00054217   -0.00000001    0.00204963    0.00235727    0.28213147    0.01870666    0.00354094 -999.00000000
   0.00066193   -0.00000004    0.00228112    0.00287796    0.19671451    0.01580499    0.00369811 -999.00000000
   0.00080327   -0.00000001    0.00253061    0.00349248    0.07605765    0.01658295    0.00392136 -999.00000000
   0.00095027    0.00000000    0.00276454    0.00413161   -0.03269560    0.03035669    0.00409386 -999.00000000
   0.00113432   -0.00000000    0.00302936    0.00493183   -0.11244131    0.01631124    0.00423330 -999.00000000
   0.00132535    0.00000001    0.00327996    0.00576238   -0.19742190    0.01645276    0.00434539 -999.00000000
   0.00152476   -0.00000001    0.00352046    0.00662940   -0.28070117    0.01607232    0.00445018 -999.00000000
   0.00175859   -0.00000000    0.00377945    0.00764605   -0.39024233    0.01637713    0.00460487 -999.00000000
   0.00200558   -0.00000001    0.00403060    0.00871993   -0.48741064    0.01602752    0.00473161 -999.00000000
   0.00228201    0.00000001    0.00428895    0.00992177   -0.56247501    0.01613233    0.00480852 -999.00000000
   0.00257397    0.00000000    0.00454043    0.01119116   -0.62485093    0.01156828    0.00487780 -999.00000000
   0.00288308   -0.00000002    0.00478676    0.01253513   -0.71589920    0.06536491    0.00497052 -999.00000000
   0.00322275   -0.00000002    0.00503775    0.01401197   -0.82681935    0.00774606    0.00509818 -999.00000000
   0.00358374   -0.00000000    0.00528566    0.01558149   -0.83602217    0.01472364    0.00504196 -999.00000000
   0.00395868   -0.00000000    0.00552536    0.01721165   -0.99458038    0.04406253    0.00522123 -999.00000000
   0.00438396   -0.00000001    0.00577729    0.01906069   -1.02164613    0.00850278    0.00523679 -999.00000000
   0.00480004   -0.00000002    0.00600820    0.02086975   -1.04053804    0.02621898    0.00519820 -999.00000000
   0.00524291    0.00000000    0.00623936    0.02279527   -1.12426794    0.02713254    0.00525917 -999.00000000
   0.00572937    0.00000001    0.00647614    0.02491029   -1.15335813    0.02300983    0.00525980 -999.00000000
   0.00623158   -0.00000001    0.00670686    0.02709383   -1.18352427    0.01053264    0.00522297 -999.00000000
   0.00675065   -0.00000003    0.00693033    0.02935063   -1.21574579    0.01822029    0.00521956 -999.00000000
   0.00730736   -0.00000001    0.00715724    0.03177112   -1.25916943    0.01399763    0.00521006 -999.00000000
   0.00788266   -0.00000000    0.00737796    0.03427242   -1.25296629    0.01705584    0.00511097 -999.00000000
   0.00847513    0.00000000    0.00759319    0.03684840   -1.28647568    0.01484209    0.00508262 -999.00000000
   0.00911903   -0.00000000    0.00781483    0.03964796   -1.30725006    0.01300165    0.00501909 -999.00000000
   0.00976646   -0.00000001    0.00802620    0.04246289   -1.32569328    0.01404452    0.00494600 -999.00000000
   0.01044655   -0.00000000    0.00823706    0.04541979   -1.34195854    0.01366814    0.00485754 -999.00000000
   0.01116573   -0.00000001    0.00844892    0.04854667   -1.35349413    0.01463033    0.00475105 -999.00000000
   0.01187973    0.00000005    0.00864922    0.05165100   -1.36404741    0.01504335    0.00479123 -999.00000000
   0.01264724   -0.00000001    0.00885444    0.05498800   -1.36399695    0.01398195    0.00487369 -999.00000000
   0.01344049   -0.00000008    0.00905677    0.05843692   -1.36545374    0.01373404    0.00508664 -999.00000000
   0.01426950   -0.00000002    0.00925872    0.06204129   -1.33028435    0.01445686    0.00450234 -999.00000000
   0.01512977    0.00000000    0.00945890    0.06578161   -1.30669128    0.01501279    0.00202848 -999.00000000
   0.01600303   -0.00000000    0.00965314    0.06957841   -1.29782115    0.04897869    0.00086358 -999.00000000
   0.01691936    0.00000000    0.00984843    0.07356245   -1.43060234    0.01512241    0.00395874 -999.00000000
   0.01785425   -0.00000001    0.01003910    0.07762715   -1.40857659    0.01484097    0.00505389 -999.00000000
   0.01884183   -0.00000000    0.01023223    0.08192102   -1.41486694    0.01781931    0.00505382 -999.00000000
   0.01984764   -0.00000002    0.01042080    0.08629409   -1.42013026    0.02197191    0.00535506 -999.00000000
   0.02088969    0.00000003    0.01060815    0.09082473   -1.42065129    0.02451448    0.00568863 -999.00000000
   0.02194980   -0.00000001    0.01079094    0.09543392   -1.42059055    0.02673377    0.00606688 -999.00000000
   0.02306411   -0.00000001    0.01097535    0.10027875   -1.41975793    0.02820658    0.00649973 -999.00000000
   0.02419557   -0.00000001    0.01115507    0.10519814   -1.41800137    0.02882595    0.00687481 -999.00000000
   0.02538134   -0.00000002    0.01133585    0.11035363   -1.41460231    0.02906477    0.00715521 -999.00000000
   0.02658527   -0.00000002    0.01151209    0.11558811   -1.41227595    0.02826967    0.00722272 -999.00000000
   0.02782552   -0.00000000    0.01168662    0.12098052   -1.41136177    0.02768679    0.00720549 -999.00000000
   0.02911928    0.00000003    0.01186146    0.12660557   -1.40922051    0.02718437    0.00709949 -999.00000000
   0.03043051   -0.00000003    0.01203182    0.13230656   -1.40853110    0.02691561    0.00696900 -999.00000000
   0.03177847    0.00000002    0.01220007    0.13816726   -1.40711908    0.02659947    0.00682932 -999.00000000
   0.03317997    0.00000001    0.01236814    0.14426075   -1.40660321    0.02632827    0.00671696 -999.00000000
   0.03459923    0.00000003    0.01253161    0.15043145   -1.40535760    0.02620573    0.00663003 -999.00000000
   0.03607256   -0.00000000    0.01269449    0.15683724   -1.40410350    0.02587222    0.00651677 -999.00000000
   0.03758201   -0.00000000    0.01285451    0.16340002   -1.40310573    0.02570644    0.00640000 -999.00000000
   0.03912761    0.00000001    0.01301161    0.17012005   -1.40203761    0.02558960    0.00630921 -999.00000000
   0.04070820   -0.00000003    0.01316552    0.17699218   -1.40115734    0.02549583    0.00622431 -999.00000000
   0.04232579    0.00000001    0.01331631    0.18402519   -1.40015700    0.02531109    0.00614237 -999.00000000
   0.04399674    0.00000000    0.01346526    0.19129016   -1.39931058    0.02524826    0.00604979 -999.00000000
   0.04568696    0.00000000    0.01360925    0.19863897   -1.39835823    0.02517640    0.00598676 -999.00000000
   0.04744096   -0.00000000    0.01375182    0.20626505   -1.39798394    0.02522420    0.00591515 -999.00000000
   0.04922559    0.00000000    0.01389002    0.21402432   -1.39695952    0.02554075    0.00584815 -999.00000000
   0.05104025   -0.00000000    0.01402373    0.22191415   -1.39599627    0.02512521    0.00578746 -999.00000000
   0.05290879   -0.00000001    0.01415451    0.23003823   -1.39514525    0.02526742    0.00574006 -999.00000000
   0.05481409   -0.00000002    0.01428088    0.23832215   -1.39472650    0.02514091    0.00567075 -999.00000000
   0.05677206    0.00000001    0.01440370    0.24683505   -1.39456222    0.02513369    0.00563155 -999.00000000
   0.05876699   -0.00000001    0.01452162    0.25550866   -1.39386089    0.02515681    0.00559450 -999.00000000
   0.06079719   -0.00000001    0.01463451    0.26433562   -1.39375204    0.02519717    0.00555183 -999.00000000
   0.06286359   -0.00000000    0.01474214    0.27331995   -1.39330317    0.02526286    0.00548581 -999.00000000
   0.06498407   -0.00000002    0.01484527    0.28253945   -1.39354957    0.02538067    0.00542739 -999.00000000
   0.06714001    0.00000000    0.01494265    0.29191308   -1.39359248    0.02549397    0.00538746 -999.00000000
   0.06933248    0.00000000    0.01503426    0.30144555   -1.39350162    0.02559743    0.00535990 -999.00000000
   0.07157837   -0.00000001    0.01512043    0.31121032   -1.39376210    0.02569579    0.00530419 -999.00000000
   0.07386040   -0.00000002    0.01520030    0.32113216   -1.39354321    0.02592151    0.00527065 -999.00000000
   0.07618196    0.00000005    0.01527371    0.33122591   -1.39375267    0.02607490    0.00522344 -999.00000000
   0.07855015   -0.00000001    0.01534059    0.34152239   -1.38942674    0.03491906    0.00510951 -999.00000000
   0.08095817   -0.00000002    0.01540045    0.35199205   -1.37521780    0.07493850    0.00493782 -999.00000000
   0.08340128   -0.00000005    0.01545287    0.36261425   -1.34279341    0.12284903    0.00450410 -999.00000000
   0.08588154   -0.00000001    0.01549770    0.37339799   -1.29323867    0.18734673    0.00413025 -999.00000000
   0.08841514    0.00000000    0.01553473    0.38441365   -1.24629182    0.23946143    0.00381228 -999.00000000
   0.09096679   -0.00000001    0.01556316    0.39550779   -1.20343642    0.27527382    0.00351528 -999.00000000
   0.09357225   -0.00000000    0.01558303    0.40683588   -1.16367786    0.30261103    0.00322683 -999.00000000
   0.09621363   -0.00000000    0.01559372    0.41832013   -1.12664603    0.32455316    0.00296710 -999.00000000
   0.09889102   -0.00000000    0.01559477    0.42996098   -1.09087738    0.34164517    0.00276696 -999.00000000
   0.10159535    0.00000000    0.01558575    0.44171891   -1.05578044    0.35486607    0.00250402 -999.00000000
   0.10433558    0.00000001    0.01556620    0.45363295   -1.01855063    0.36398993    0.00227443 -999.00000000
   0.10712081   -0.00000000    0.01553543    0.46574265   -0.97868140    0.36948226    0.00204638 -999.00000000
   0.10992401    0.00000000    0.01549317    0.47793047   -0.93578040    0.36918697    0.00178126 -999.00000000
   0.11278087    0.00000000    0.01543822    0.49035160   -0.88711541    0.35977606    0.00150102 -999.00000000
   0.11565595    0.00000001    0.01537058    0.50285197   -0.83008343    0.33423105    0.00114135 -999.00000000
   0.11854809    0.00000005    0.01528969    0.51542646   -0.75919467    0.27639603    0.00067708 -999.00000000
   0.12147795    0.00000000    0.01519433    0.52816499   -0.68587571    0.19625584    0.00033766 -999.00000000
   0.12442475   -0.00000000    0.01508444    0.54097716   -0.63681824    0.14680158    0.00020399 -999.00000000